12
 Atoms. Timestep: 0
C 53.88 52.15 50
C 53.18 53.36 50
C 51.78 53.36 50
C 51.08 52.15 50
C 51.78 50.94 50
C 53.18 50.94 50
H 54.96 52.15 50
H 53.72 54.3 50
H 51.24 54.3 50
H 50 52.15 50
H 51.24 50 50
H 53.72 50 50
